95
energy=-307.14514361 config_type=FromPyNEP pbc="T T T" virial="-2.1129164528607007 -3.747380450795387 1.9298836531352082 -3.747380450795387 -20.808625925948586 4.166268087759107 1.9298836531352082 4.166268087759107 -2.3974317993966965" Lattice="16.47015513338124 0.0 -1.8600829416806354e-18 0.0 10.513122032 0.0 0.032496843447737865 0.0 19.593750973804735" Properties=species:S:1:pos:R:3:force:R:3
Sr  1.38585193e+00  1.67301000e+00  4.06893971e+00 -4.53233987e-01 -1.13862600e+00  1.75886717e-01
Sr  9.35200246e+00  1.09660000e+00  4.06625951e+00  5.50273249e-01  8.45177000e-01  3.75503830e-01
Sr  2.09374090e+00  6.44805000e+00  4.53669158e+00 -1.24866793e+00  7.62514000e-01 -5.86612509e-01
Sr  9.33032449e+00  6.40931000e+00  3.80398743e+00  5.87593485e-01  6.71216000e-01 -8.02823418e-02
Sr  1.41262212e+00  1.16033000e+00  1.40807009e+01 -2.60557183e-01 -4.27790000e-02  7.03824777e-01
Sr  9.25555795e+00  1.60938000e+00  1.40483531e+01 -7.63304248e-02 -4.17811000e-01 -2.18278642e-01
Sr  7.11353848e-01  6.71288000e+00  1.37581736e+01  4.82152928e-01 -4.43517000e-01  6.62736540e-01
Sr  9.07668986e+00  6.45080000e+00  1.41951218e+01  4.91221248e-01 -3.15633000e-01 -9.70977560e-01
Sr  7.05442223e+00  4.75012000e+00  5.65530944e+00  7.35963481e-02 -1.46515400e+00 -5.09815338e-01
Sr  1.53588591e+01  4.04697000e+00  4.42073769e+00  2.49683423e-01  5.29610000e-01  1.90283916e+00
Sr  7.43578919e+00  9.69658000e+00  6.10875267e+00 -4.22658714e-01 -5.29370000e-02 -5.34953938e-01
Sr  1.48029317e+01  9.22103000e+00  5.95228022e+00  2.21893570e-01 -4.28387000e-01 -4.65087563e-01
Sr  6.95022823e+00  3.71005000e+00  1.58546196e+01  4.58978223e-01  1.40133000e-01 -3.16392539e-01
Sr  1.51357410e+01  3.65938000e+00  1.57221670e+01 -1.27751003e-02 -1.30919000e-01 -3.29822497e-01
Sr  7.20511104e+00  9.44214000e+00  1.48832074e+01 -3.45858133e-01 -6.13238000e-01  9.43378748e-01
Sr  1.52384481e+01  8.64809000e+00  1.59232317e+01  4.02072332e-01  7.03197000e-01 -1.19465455e+00
Sr  2.63697435e+00  4.32459000e+00  9.12523172e+00  9.75288902e-01 -2.00685000e-01  4.42295648e-01
Sr  1.06400076e+01  3.72573000e+00  9.19802090e+00  5.79088605e-02 -4.18850000e-02 -6.48776349e-01
Sr  2.67659761e+00  9.19294000e+00  9.76689901e+00 -2.03280909e-01 -2.85264000e-01 -1.75182667e+00
Sr  1.09528724e+01  9.29719000e+00  9.08334085e+00  5.31868713e-02  8.29490000e-02 -4.86314368e-01
Sr  2.81218944e+00  4.15351000e+00  1.88901295e+01  5.40328759e-01 -8.25760000e-02  1.13800004e-01
Sr  1.18275182e+01  4.38776000e+00  1.87405273e+01 -7.25312448e-01 -6.69133000e-01  2.09137836e-01
Sr  2.59581954e+00  8.83852000e+00  1.93114994e+01  7.13330026e-01  4.36230000e-02 -1.55373934e+00
Sr  1.14323575e+01  8.66148000e+00  1.88962658e+01 -3.40837585e-01  8.73100000e-01 -1.97904818e-01
Sr  5.07800887e+00  1.74111000e+00  4.77850133e-01  8.55366481e-01 -6.98835000e-01  9.09926470e-01
Sr  1.33512952e+01  1.01848000e+00  3.25594643e-01  1.48865189e+00  7.52328000e-01  3.90327004e-01
Sr  5.82154424e+00  6.68696000e+00  5.20112239e-01 -4.00696422e-01  1.81432000e-01  1.08504537e+00
Sr  1.39633214e+01  6.73131000e+00  9.58586243e-01 -1.37761107e-02 -9.77742000e-01  2.82650546e-01
Sr  5.24203190e+00  1.10472000e+00  1.00116471e+01  4.32426487e-01  7.80739000e-01  4.68493798e-01
Sr  1.33617742e+01  1.34778000e+00  1.03239494e+01  3.87463549e-01 -1.76201000e-01  5.78088202e-01
Sr  5.63201611e+00  6.88035000e+00  1.00646830e+01 -6.18140827e-01 -3.43983000e-01  1.13278009e+00
Sr  1.34768311e+01  6.63129000e+00  1.08255239e+01 -5.08491201e-01 -5.46929000e-01 -2.41896507e-01
Sr  6.57432775e-01  1.60767000e+00  8.25777650e+00 -6.57578639e-01 -2.77413000e-01 -2.47174611e-01
Sr  1.63834153e+01  6.52535000e+00  8.20620755e+00 -2.98508190e-02  2.40630000e-01 -3.42713311e-01
Sr  8.62880348e+00  6.87403000e+00  8.00261188e+00 -2.32290621e-02 -6.12796000e-01 -4.14003839e-01
Sr  6.85164498e-01  1.15401000e+00  1.77900567e+01 -2.95756300e-01  7.59890000e-02 -4.11770357e-01
Sr  8.68830082e+00  1.13759000e+00  1.79628059e+01  1.13079102e-01 -2.48513000e-01  1.64929084e-01
Sr  1.93068632e-01  5.91828000e+00  1.78313357e+01  4.43330362e-01  1.04670700e+00 -2.41614509e-01
Sr  8.32933319e+00  6.43574000e+00  1.77853041e+01  3.89999317e-01  2.31189000e-01  2.18894776e-04
Sr  8.58398813e+00  3.52242000e+00  1.28172680e+00 -1.33542598e+00  9.97360000e-01  1.76256854e-01
Sr  5.11161635e-02  3.53888000e+00  1.45136802e+00  5.09875702e-01 -1.33562000e-01  4.66314434e-01
Sr  8.30727730e+00  9.23098000e+00  1.65386689e+00 -3.42115201e-01  2.00583000e-01  2.53798399e-01
Sr  1.62765769e+01  9.53130000e+00  1.36123397e+00 -3.50633214e-02  1.71950000e-02  1.95260081e+00
Sr  7.59130505e+00  3.98715000e+00  1.11576052e+01  2.90426778e-01  5.80990000e-02  5.92843848e-01
Sr  1.60961187e+01  3.91655000e+00  1.18443876e+01  7.03399354e-02 -2.43528000e-01 -3.86369589e-01
Sr  7.90672422e+00  8.95993000e+00  1.13851131e+01  2.68600882e-01  9.69399000e-01  2.36798864e-01
Sr  1.60011829e+01  9.44260000e+00  1.13560563e+01  2.29856024e-02  2.07976000e-01  4.91666068e-01
Sr  4.12591605e+00  4.08303000e+00  2.72505214e+00  6.00356785e-01 -1.43487000e-01  6.52889305e-01
Sr  1.21966670e+01  3.36784000e+00  3.14397516e+00 -2.01888893e-01  2.99301000e-01 -1.06882259e-01
Sr  3.96547255e+00  9.80233000e+00  2.67277545e+00  7.72258053e-01 -7.31086000e-01  6.77206456e-01
Sr  1.23994003e+01  9.39327000e+00  2.95537661e+00  2.45135017e-01 -1.62657000e-01  4.36720434e-01
Sr  4.48631601e+00  3.84353000e+00  1.36870064e+01 -1.50632647e+00  3.51132000e-01 -8.89185488e-01
Sr  1.18802904e+01  3.45270000e+00  1.30273915e+01  6.25016615e-01  4.90022000e-01  3.00104689e-01
Sr  3.49582696e+00  8.76703000e+00  1.30748693e+01  7.96549076e-01  1.45589000e-01  3.66770162e-01
Sr  1.21658393e+01  9.13658000e+00  1.36396344e+01 -2.35821665e-01  5.95736000e-01 -1.25455146e+00
Sr  4.13251487e+00  1.51721000e+00  6.08085781e+00  4.73010679e-01 -2.41843000e-01  6.99744151e-01
Sr  1.32315257e+01  1.47351000e+00  6.65563636e+00 -6.62787189e-01  6.89420000e-01 -1.75635258e-01
Sr  4.49662166e+00  6.75232000e+00  6.61833541e+00 -7.00163426e-02  4.21988000e-01  5.36293372e-01
Sr  1.26347551e+01  6.19377000e+00  6.47468224e+00 -2.26376672e-01  9.90290000e-02 -1.43907921e-01
Sr  4.68412436e+00  9.35060000e-01  1.68015131e+01 -8.09967664e-01 -1.16225000e-01 -4.37264035e-01
Sr  1.25534771e+01  1.15844000e+00  1.64646432e+01 -3.80047967e-01 -2.40151000e-01 -2.22414241e-01
Sr  4.53751177e+00  6.82188000e+00  1.63893348e+01 -4.97937965e-01 -1.04071000e-01  1.13359846e-01
Sr  1.19184595e+01  6.77028000e+00  1.60586808e+01  7.48231767e-01 -1.02503100e+00  2.43681273e-01
Si  6.28144216e+00  1.31242000e+00  3.69415114e+00 -1.71966541e-01  4.13905000e-01 -1.81076151e-01
Si  1.47700248e+01  1.12867000e+00  3.74196680e+00 -5.04213824e-01  2.33346000e-01 -5.29035160e-01
Si  5.87924928e+00  7.52328000e+00  3.90744545e+00  4.81554301e-01 -8.00445000e-01  7.23608338e-02
Si  1.47178784e+01  6.92624000e+00  3.86658018e+00 -1.38576018e-01 -1.65210000e-02  7.94541897e-02
Si  6.12454160e+00  1.32132000e+00  1.36088250e+01  2.15404731e-01  2.74802000e-01  2.48559985e-02
Si  1.43631119e+01  9.07160000e-01  1.38825185e+01  1.43466589e-01  3.43108000e-01  1.23386816e-01
Si  6.19315602e+00  6.74663000e+00  1.37344380e+01 -4.28993805e-01 -3.19603000e-01 -2.47468574e-01
Si  1.41657876e+01  6.00040000e+00  1.38412724e+01 -1.38635043e-01  4.45971000e-01  1.62453267e-01
Si  1.79454442e+00  3.76350000e+00  6.20162080e+00  2.66322617e-01  7.91760000e-01 -3.30278439e-01
Si  1.02861117e+01  4.13147000e+00  5.70147379e+00  9.13687189e-02 -3.39954000e-01  1.64700746e-02
Si  1.23668798e+00  9.69164000e+00  6.29036443e+00  1.14926436e+00 -1.93739000e-01 -1.07144122e-01
Si  1.07471869e+01  8.86332000e+00  5.31039048e+00 -6.70709127e-01  2.63466000e-01  9.13438702e-01
Si  2.24624719e+00  3.54776000e+00  1.60959788e+01 -6.09469601e-01  2.00908000e-01 -8.00671782e-01
Si  1.01636182e+01  4.01107000e+00  1.61660892e+01 -1.75913411e-01 -2.12294000e-01 -6.86309046e-01
Si  2.08051099e+00  8.81869000e+00  1.60163865e+01 -3.50780411e-01  2.13773000e-01 -1.51965540e-01
Si  9.99779537e+00  9.21135000e+00  1.61507370e+01  4.81883914e-01  8.06040000e-02 -4.81627631e-01
Ge  6.14316682e+00  4.52527000e+00  8.48898771e+00 -3.57575097e-01 -7.00545000e-01  1.92851661e-02
Ge  1.44944953e+01  3.97017000e+00  8.62813746e+00 -3.33134553e-01 -2.81885000e-01  4.09801990e-01
Ge  5.39456193e+00  9.17898000e+00  8.27885976e+00  4.51653957e-01  2.22348000e-01  1.91086723e-01
Ge  1.39526615e+01  9.06072000e+00  9.09304791e+00  5.06281541e-01  2.34683000e-01 -5.74741939e-01
Ge  5.82609594e+00  4.05552000e+00  1.85477447e+01  7.03397221e-01  4.88711000e-01  9.60045161e-03
Ge  1.47704450e+01  4.01826000e+00  1.90002117e+01 -7.45428830e-01 -7.13752000e-01 -1.01989287e+00
Ge  6.18909693e+00  9.67774000e+00  1.91865332e+01 -1.67143306e-01 -6.44521000e-01 -1.04356846e+00
Ge  1.46136698e+01  8.94359000e+00  1.86329319e+01 -6.87322655e-01  3.56374000e-01  3.21984304e-01
Ge  2.14634222e+00  1.23427000e+00  8.44096594e-01 -2.88665521e-01  1.33793000e-01  3.01523997e-01
Ge  1.06170022e+01  1.61660000e+00  9.84947179e-01 -2.23515025e-02 -1.35805400e+00 -8.60304547e-02
Ge  2.70381121e+00  6.46395000e+00  1.49243354e+00 -6.70874282e-01  6.35600000e-03 -3.02091580e-01
Ge  1.00829661e+01  6.40225000e+00  7.01050887e-01  7.81240323e-02  6.02440000e-02  5.18633255e-01
Ge  2.42110929e+00  1.16541000e+00  1.13453519e+01 -4.66294259e-01  6.37613000e-01 -7.35340744e-01
Ge  1.03360091e+01  9.35680000e-01  1.11132542e+01 -2.19960824e-01  9.57413000e-01  3.73328925e-01
Ge  1.73045012e+00  6.61574000e+00  1.09495457e+01 -1.89244581e-01 -4.86080000e-02  1.25727313e-01
Ge  9.87725227e+00  6.79617000e+00  1.07562253e+01  3.09412126e-01 -8.92854000e-01  2.34668947e-01
96
energy=-312.96390666 config_type=FromPyNEP pbc="T T T" virial="-14.201895253997229 -1.0428494775572912 1.3598466828037026 -1.0428494775572912 -10.56130917391734 -0.09120507324388798 1.3598466828037026 -0.09120507324388798 -13.427129726984194" Lattice="16.47015513338124 0.0 -1.8600829416806354e-18 0.0 10.513122032 0.0 0.032496843447737865 0.0 19.593750973804735" Properties=species:S:1:pos:R:3:force:R:3
Sr  1.47690259e+00  1.41052000e+00  4.12985406e+00 -2.23084061e-01  2.63591000e-01  2.39478475e-01
Sr  9.71827653e+00  1.30937000e+00  4.26353519e+00 -2.84244781e-01  3.20280000e-01 -7.32434034e-01
Sr  6.36918122e-01  6.44379000e+00  4.20906215e+00  2.19509109e+00  2.32158000e-01 -4.50839366e-01
Sr  9.76042921e+00  6.58970000e+00  4.18252013e+00  2.68748062e-01 -2.04260000e-02  5.60705853e-01
Sr  1.18586673e+00  1.21340000e+00  1.37975393e+01  1.24393049e-01  1.00946300e+00  2.41872708e-01
Sr  9.30384628e+00  1.67021000e+00  1.38898929e+01  4.10392876e-01 -1.18395400e+00 -5.43012241e-01
Sr  9.32161230e-01  6.45033000e+00  1.36707001e+01  1.35046217e-01  5.74933000e-01 -1.29752274e-01
Sr  9.83937302e+00  6.26652000e+00  1.40060779e+01 -3.84032649e-01  7.07867000e-01 -4.25390000e-01
Sr  7.23471707e+00  4.22153000e+00  5.60089959e+00  5.13849088e-01 -2.96543000e-01  1.59933026e-01
Sr  1.52040279e+01  4.04812000e+00  5.73094681e+00  1.00736860e-01 -6.62817000e-01  4.29371432e-01
Sr  7.10692481e+00  9.21492000e+00  5.64636581e+00  4.15328351e-02  8.40066000e-01  2.74604940e-02
Sr  1.51562170e+01  9.22343000e+00  5.17630635e+00  4.76491609e-02  9.66520000e-02  1.62825296e+00
Sr  7.07259727e+00  4.03223000e+00  1.54081877e+01 -7.13942244e-01 -3.02834000e-01  7.70143416e-02
Sr  1.49274536e+01  4.16815000e+00  1.54245100e+01  9.93962576e-02 -4.09647000e-01  3.09519505e-01
Sr  6.91114560e+00  9.04748000e+00  1.56228320e+01  3.59725973e-01  6.69940000e-02 -8.10010227e-01
Sr  1.53908305e+01  9.27719000e+00  1.57094250e+01 -1.16566301e+00  8.93070000e-02 -5.16946465e-01
Sr  2.96892367e+00  3.79644000e+00  9.36493594e+00 -5.64061611e-01  7.83576000e-01 -1.20140466e+00
Sr  1.09623290e+01  3.79741000e+00  9.13944301e+00  9.54224510e-01  7.72850000e-01 -9.68448334e-01
Sr  2.80543864e+00  8.74804000e+00  9.41912182e+00  1.87180596e-01  1.72143300e+00 -1.39399704e+00
Sr  1.07317070e+01  9.37347000e+00  8.92048460e+00  3.36621709e-01 -5.87789000e-01  7.96101529e-01
Sr  2.98104498e+00  3.83387000e+00  1.86199691e+01  2.71917541e-02  5.50497000e-01  6.07364612e-01
Sr  1.09973571e+01  3.70447000e+00  1.91967774e+01  2.92093897e-01  4.92319000e-01 -7.71567008e-01
Sr  2.94270269e+00  9.22914000e+00  1.85329909e+01 -1.55214172e-01  3.71544000e-01  8.34955278e-01
Sr  1.12636018e+01  9.14215000e+00  1.88654060e+01 -4.87646473e-01 -4.68738000e-01  6.69877485e-01
Sr  5.35010052e+00  1.31139000e+00  5.27854031e-01  8.11323277e-01  5.35013000e-01  7.20779006e-01
Sr  1.39419978e+01  1.46857000e+00  8.69943933e-01 -3.60235984e-01 -1.99226200e+00 -3.90906764e-01
Sr  5.06112422e+00  6.54979000e+00  9.77654337e-01  9.23291970e-01  3.41800000e-03 -1.12070168e+00
Sr  1.37068145e+01  6.64173000e+00  6.49489304e-01 -5.47001671e-01 -1.32892500e+00  1.00057393e+00
Sr  5.95182991e+00  1.13300000e+00  1.02375873e+01 -1.07618346e+00  4.69173000e-01  8.57855648e-01
Sr  1.35249522e+01  1.35696000e+00  9.75588358e+00 -6.48471800e-01 -5.79508000e-01  2.32410271e+00
Sr  5.34948520e+00  6.91342000e+00  1.05450380e+01  4.29598681e-01 -6.72520000e-01 -2.82390237e-02
Sr  1.33567404e+01  6.24369000e+00  1.06923737e+01  6.19259321e-01  6.78136000e-01  2.60044460e-01
Sr  1.64538149e+01  8.01160000e-01  8.44629913e+00  1.10072411e+00  1.00498400e+00 -1.19039816e+00
Sr  8.44530285e+00  1.61988000e+00  8.02600438e+00  4.24080871e-02 -2.72572000e-01 -9.13225558e-01
Sr  1.61579776e+01  7.06663000e+00  7.88406479e+00  1.27547581e+00 -1.15114900e+00  1.55666081e-01
Sr  8.22739723e+00  6.51684000e+00  8.04339548e+00  3.17010991e-01  8.79450000e-02  3.31970666e-01
Sr  6.74875426e-02  1.70527000e+00  1.74931500e+01  1.41336882e-01 -1.72380000e-01  7.51867803e-01
Sr  8.76157375e+00  1.13117000e+00  1.75571748e+01 -1.36545909e+00  9.24150000e-02  3.37380869e-01
Sr  9.55553766e-02  6.91996000e+00  1.79357568e+01  3.70212166e-01 -5.42299000e-01  4.78963504e-01
Sr  8.58709715e+00  6.35174000e+00  1.74289698e+01 -9.80610213e-02  1.20063000e-01  1.37900897e+00
Sr  8.42367278e+00  4.07436000e+00  1.91311025e+00 -1.01495607e+00 -5.45304000e-01 -3.52229652e-01
Sr  1.63418084e+01  3.99010000e+00  1.83228993e+00  5.97163044e-01  2.42140000e-02 -4.52640423e-01
Sr  8.14880059e+00  8.87861000e+00  1.94668869e+00 -1.62359145e-02  7.03747000e-01 -9.93824850e-01
Sr  1.62186488e+01  9.31455000e+00  2.14570238e+00  7.25383407e-01 -1.43206000e-01 -1.54245536e+00
Sr  8.58793399e+00  3.95442000e+00  1.12642170e+01 -1.58415177e+00  1.52508000e-01  4.07649635e-01
Sr  1.63607230e+01  3.78077000e+00  1.17651776e+01 -3.87737402e-01 -2.28706000e-01 -8.89569082e-01
Sr  8.12427474e+00  9.24702000e+00  1.17827325e+01  6.57318592e-02 -3.59319000e-01  1.47810425e-01
Sr  1.68431511e-01  9.49355000e+00  1.14933640e+01 -1.22901023e+00 -6.43659000e-01  2.75786453e-01
Sr  4.69810239e+00  4.17783000e+00  3.59882693e+00 -8.98339117e-01 -2.22669000e-01 -9.98515788e-01
Sr  1.25199097e+01  3.46668000e+00  3.15917654e+00 -7.61080787e-01  1.50653700e+00  1.54596542e-01
Sr  3.93561666e+00  9.32920000e+00  3.02669039e+00 -1.87831329e-01 -3.38708000e-01  2.59597185e-01
Sr  1.22581750e+01  9.16576000e+00  3.18964406e+00 -3.95253407e-01  8.86480000e-02 -4.10654670e-01
Sr  4.34154104e+00  4.17272000e+00  1.27665664e+01 -2.99794234e-01 -5.97297000e-01  3.62039266e-01
Sr  1.20198550e+01  3.83841000e+00  1.32975556e+01  9.40800106e-01 -5.28894000e-01 -6.00715051e-01
Sr  3.73489517e+00  9.14156000e+00  1.32531207e+01  1.18632518e+00  2.99284000e-01 -7.37908139e-01
Sr  1.23687833e+01  9.14169000e+00  1.31871256e+01 -4.93766747e-01 -1.13933000e-01 -3.78532790e-01
Sr  4.20320072e+00  1.63134000e+00  6.60529925e+00  2.73334898e-01 -3.01757000e-01  2.38298558e-02
Sr  1.25020617e+01  1.24716000e+00  6.47070251e+00  1.05564997e-01  3.23968000e-01 -1.43241778e-01
Sr  4.37553633e+00  6.38234000e+00  6.87670613e+00 -6.72672300e-01  3.80564000e-01 -6.45056205e-01
Sr  1.24486841e+01  6.53718000e+00  6.97892705e+00 -1.32658302e-01 -2.59990000e-02 -4.15449899e-01
Sr  4.31326562e+00  1.28281000e+00  1.64421912e+01  4.17179106e-01  6.80820000e-02 -6.72695925e-01
Sr  1.20678283e+01  1.04115000e+00  1.64061368e+01  9.63878583e-01  2.57370000e-01 -2.29531102e-01
Sr  3.72927609e+00  6.66421000e+00  1.61662364e+01  7.00451821e-01 -3.90922000e-01 -4.98421212e-02
Sr  1.26658484e+01  6.79315000e+00  1.68271500e+01 -1.45372714e-01 -4.57947000e-01 -6.18097403e-01
Si  6.83409672e+00  1.85980000e+00  3.71144187e+00 -8.39591773e-01 -6.72524000e-01  3.92900871e-01
Si  1.44326898e+01  1.32351000e+00  3.88049719e+00  4.75979714e-01 -3.04730000e-02  1.93190508e-01
Si  6.51042789e+00  7.05142000e+00  3.71299085e+00 -2.31923928e-01 -1.24698300e+00  5.33249922e-01
Si  1.42833264e+01  6.64778000e+00  3.59966122e+00 -6.22000469e-01 -2.58997000e-01  9.35869231e-01
Si  6.37333555e+00  1.35609000e+00  1.33848481e+01 -3.74926054e-01 -1.39432000e-01  5.36766764e-01
Si  1.38182814e+01  1.17062000e+00  1.35211411e+01  1.14186752e+00  8.31420000e-01  6.86037299e-01
Si  6.23251138e+00  6.69496000e+00  1.34400452e+01  7.33030444e-02  3.81000000e-03  6.32964301e-01
Si  1.42505306e+01  6.76576000e+00  1.38689720e+01  4.25808539e-02 -5.80110000e-01  7.80216405e-02
Si  2.36417328e+00  4.28943000e+00  5.44192715e+00 -6.51206339e-01 -9.01878000e-01  6.90563417e-01
Si  1.03975023e+01  3.89233000e+00  5.99088132e+00  1.01122927e-01  2.21206000e-01 -1.09600411e-02
Si  2.02692925e+00  8.75108000e+00  5.64178749e+00 -3.79193739e-01  9.38783000e-01  1.85781190e-01
Si  1.03806994e+01  9.51892000e+00  5.99953529e+00 -3.66724125e-02 -1.03419900e+00 -4.28859672e-01
Si  2.01748511e+00  4.04237000e+00  1.52392187e+01 -2.79798873e-01 -4.45815000e-01  4.97236696e-01
Si  1.02058264e+01  3.76008000e+00  1.58270040e+01  1.37330051e-01  2.38124000e-01  3.04441978e-01
Si  1.86609973e+00  9.32134000e+00  1.54855045e+01  1.73233556e-01 -3.60237000e-01  6.27522253e-01
Si  1.03181171e+01  8.56179000e+00  1.59120407e+01 -1.78703389e-01  1.21143400e+00 -2.78358586e-01
Ge  5.82726148e+00  3.76398000e+00  8.48270024e+00  1.07954088e+00  5.73225000e-01  2.56920946e-01
Ge  1.44124779e+01  3.89190000e+00  8.92008572e+00  1.02624560e-01  9.63608000e-01 -7.97163560e-01
Ge  5.92321774e+00  9.25921000e+00  8.49019050e+00  2.93879151e-01 -6.69441000e-01  2.73210869e-01
Ge  1.46734443e+01  9.13239000e+00  9.13220892e+00 -1.37535868e+00 -1.19515000e-01 -7.84620481e-02
Ge  6.56693894e+00  3.87076000e+00  1.86834091e+01 -5.18336734e-01  2.81743000e-01 -4.31453390e-01
Ge  1.43265490e+01  3.71584000e+00  1.89088406e+01  2.85290836e-01  1.42276100e+00 -1.14346148e+00
Ge  6.20493276e+00  9.44092000e+00  1.84835898e+01 -3.41600165e-01 -5.80456000e-01  8.29719123e-02
Ge  1.43897484e+01  9.07850000e+00  1.89923181e+01  4.33520225e-01  1.04188800e+00 -1.05400964e+00
Ge  2.31528219e+00  1.34443000e+00  1.14481630e+00 -5.65821971e-01  3.80740000e-02 -5.55658971e-01
Ge  1.00013668e+01  9.69360000e-01  5.81568658e-01  6.24725919e-01  5.83463000e-01  1.33772429e+00
Ge  2.06820832e+00  6.85978000e+00  8.99601545e-01 -5.92836320e-01 -2.91966000e-01 -1.15656369e-01
Ge  1.01553173e+01  6.46120000e+00  1.24400095e+00  9.40085681e-01  3.37125000e-01 -9.83878589e-01
Ge  2.08712269e+00  1.47562000e+00  1.06636992e+01 -1.89019467e-01 -1.59315100e+00  9.36895406e-01
Ge  1.04922879e+01  1.35046000e+00  1.07146242e+01 -8.12889907e-01 -2.58563000e-01  4.66130706e-01
Ge  1.62192284e+00  6.28743000e+00  1.03271457e+01  1.51176255e-01  6.47180000e-02  1.30944582e+00
Ge  1.01765985e+01  6.52865000e+00  1.06914365e+01  1.23596222e-01  2.81672000e-01 -1.76670774e-01
95
energy=-318.38058617 config_type=FromPyNEP pbc="T T T" virial="25.283176952654735 -8.607042237495588 -7.763350001501518 -8.607042237495588 22.453187960382458 6.237927656776112 -7.763350001501518 6.237927656776112 24.004391874427423" Lattice="15.94882678 0.0 0.0 0.0 10.176010698 0.0 0.0 0.0 18.993659364" Properties=species:S:1:pos:R:3:force:R:3
Sr  1.18559000e+00  1.19263000e+00  3.75027000e+00  1.01338500e+00 -2.93215000e-01  6.81613000e-01
Sr  9.33612000e+00  1.56948000e+00  3.91645000e+00 -6.08991000e-01 -1.00562100e+00  4.05237000e-01
Sr  1.31301000e+00  6.33738000e+00  3.99502000e+00 -5.63750000e-02 -3.44015000e-01  4.31510000e-02
Sr  9.30547000e+00  6.38850000e+00  4.03518000e+00 -8.12390000e-02 -4.59791000e-01  1.18155800e+00
Sr  1.53465000e+00  1.05322000e+00  1.37646500e+01 -6.15038000e-01  2.37940000e-01 -5.19319000e-01
Sr  9.54672000e+00  1.29391000e+00  1.32989800e+01 -8.27210000e-01  5.30811000e-01  1.45319000e-01
Sr  1.28195000e+00  6.39128000e+00  1.38279400e+01 -9.07560000e-02  2.57775000e-01 -3.05135000e-01
Sr  8.93529000e+00  6.36686000e+00  1.33678700e+01 -2.79173000e-01  5.67072000e-01 -4.92510000e-02
Sr  6.53029000e+00  3.70723000e+00  5.77214000e+00  1.44968600e+00 -2.72608000e-01 -1.28823200e+00
Sr  1.44933800e+01  3.38186000e+00  5.33899000e+00  9.19587000e-01  1.76858100e+00  1.52691000e-01
Sr  7.20432000e+00  9.30224000e+00  5.60944000e+00 -5.50146000e-01  4.31575000e-01  3.90464000e-01
Sr  1.49483700e+01  9.12888000e+00  5.08689000e+00 -2.02207000e-01 -1.04878000e+00  1.17286200e+00
Sr  6.69492000e+00  3.95383000e+00  1.46833900e+01  7.41382000e-01 -7.42707000e-01  1.96245000e-01
Sr  1.45726600e+01  3.80282000e+00  1.51712600e+01 -1.91868000e-01  3.16975000e-01 -7.87059000e-01
Sr  6.62357000e+00  9.18608000e+00  1.51337100e+01 -1.70503000e-01 -4.63903000e-01 -1.95000000e-03
Sr  1.47120000e+01  9.00689000e+00  1.51752300e+01  2.37180000e-01 -3.79262000e-01 -7.71256000e-01
Sr  2.84850000e+00  3.93705000e+00  8.56377000e+00 -8.11172000e-01  9.90190000e-02  6.63130000e-02
Sr  1.07793700e+01  3.92484000e+00  8.70286000e+00  3.71339000e-01 -7.56126000e-01  7.13759000e-01
Sr  2.34389000e+00  8.85831000e+00  8.79231000e+00 -8.07282000e-01 -4.88993000e-01  2.68617000e-01
Sr  1.08893400e+01  8.98337000e+00  8.26604000e+00 -2.63364000e-01 -2.79511000e-01  1.04913600e+00
Sr  2.29862000e+00  3.79263000e+00  1.83803900e+01  6.90820000e-01  6.87894000e-01 -3.90015000e-01
Sr  1.11291500e+01  3.89567000e+00  1.83297900e+01 -1.26662600e+00 -4.47950000e-01  1.46578000e-01
Sr  2.71807000e+00  8.71823000e+00  1.85002100e+01  1.02070400e+00 -9.45000000e-03 -8.47586000e-01
Sr  1.05574600e+01  8.97529000e+00  1.84333900e+01  8.72310000e-02 -1.81150000e-01  7.71520000e-02
Sr  5.88772000e+00  1.43368000e+00  6.52560000e-01 -3.20799000e-01 -7.86791000e-01 -2.34436000e-01
Sr  1.28805000e+01  1.17944000e+00  9.61850000e-01  2.26941000e-01  2.05676000e-01 -8.46175000e-01
Sr  5.22914000e+00  5.84473000e+00  6.55760000e-01 -6.35537000e-01  1.38403000e+00  1.36903000e-01
Sr  1.30743900e+01  6.12327000e+00  1.25458000e+00  8.69158000e-01 -2.05757000e-01 -7.90316000e-01
Sr  5.19315000e+00  1.69793000e+00  1.02746600e+01  4.89146000e-01 -4.54351000e-01 -1.12355400e+00
Sr  1.32680900e+01  9.83480000e-01  9.77855000e+00 -2.22270000e-01  6.82550000e-01  1.11771000e+00
Sr  5.14013000e+00  6.14802000e+00  1.03821700e+01 -4.38157000e-01  5.92948000e-01 -5.70200000e-01
Sr  1.32083400e+01  6.02264000e+00  1.01021100e+01  7.57099000e-01  9.39505000e-01  2.14969000e-01
Sr  2.31400000e-02  1.57712000e+00  7.73005000e+00  1.14205200e+00 -6.97697000e-01  1.00750000e-01
Sr  3.38300000e-01  6.15348000e+00  7.46091000e+00 -6.42511000e-01 -9.04340000e-02  1.60148000e-01
Sr  7.80434000e+00  6.66614000e+00  7.97842000e+00  3.56230000e-01 -3.73334000e-01 -1.99590000e-01
Sr  1.56800800e+01  1.59673000e+00  1.73652000e+01  7.60056000e-01 -1.07391200e+00 -6.65030000e-02
Sr  8.46399000e+00  1.30096000e+00  1.70855300e+01 -3.58454000e-01  5.90241000e-01  2.52110000e-01
Sr  1.55056200e+01  6.53639000e+00  1.76815200e+01  1.15522500e+00 -8.59228000e-01 -5.11533000e-01
Sr  8.18876000e+00  6.47450000e+00  1.72739900e+01 -1.92304000e-01 -2.35517000e-01  2.33846000e-01
Sr  7.76422000e+00  4.16919000e+00  2.03036000e+00  3.95746000e-01 -4.67042000e-01 -5.19584000e-01
Sr  7.54500000e-02  3.33380000e+00  1.67217000e+00 -7.38073000e-01  1.06992000e+00  4.06139000e-01
Sr  8.16394000e+00  8.66331000e+00  2.03548000e+00 -9.62259000e-01  5.05299000e-01 -6.51138000e-01
Sr  1.59110500e+01  8.89266000e+00  1.41695000e+00 -2.92466000e-01  1.81142000e-01  3.74538000e-01
Sr  8.03202000e+00  3.61864000e+00  1.06412600e+01 -1.21413000e-01 -4.46730000e-02  6.98880000e-02
Sr  1.08500000e-01  3.74845000e+00  1.15502800e+01 -8.10058000e-01 -2.59231000e-01 -4.93101000e-01
Sr  6.85186000e+00  9.03044000e+00  1.10817600e+01  2.21116900e+00  1.48294000e-01 -3.57357000e-01
Sr  1.57625300e+01  9.06863000e+00  1.10896700e+01 -3.79420000e-02 -5.44217000e-01  5.99390000e-01
Sr  4.12087000e+00  3.45180000e+00  3.33350000e+00 -3.08353100e+00  2.64687800e+00 -7.18423000e-01
Sr  1.16442300e+01  3.74154000e+00  3.31201000e+00  3.74960000e-01  4.76898000e-01 -3.97664000e-01
Sr  4.28742000e+00  8.95217000e+00  3.28882000e+00 -4.41707000e-01  5.54795000e-01 -9.43764000e-01
Sr  1.19808000e+01  8.47715000e+00  2.88478000e+00 -1.91057000e-01  9.34535000e-01  8.72831000e-01
Sr  3.64209000e+00  3.78865000e+00  1.22240600e+01 -1.02629000e-01  2.99550000e-02  8.39482000e-01
Sr  1.16169200e+01  4.50897000e+00  1.28677400e+01  7.67598000e-01 -8.80279000e-01 -4.92718000e-01
Sr  3.98731000e+00  9.08720000e+00  1.23223500e+01 -1.28856200e+00 -2.27475000e-01  6.18515000e-01
Sr  1.13325500e+01  8.89389000e+00  1.23299200e+01  9.15077000e-01 -5.30149000e-01 -2.59663000e-01
Sr  3.94150000e+00  9.56130000e-01  6.92505000e+00  4.18390000e-02  9.42347000e-01 -9.31636000e-01
Sr  1.20311300e+01  1.40621000e+00  6.27881000e+00 -2.22097000e-01 -6.20053000e-01  4.58526000e-01
Sr  4.38362000e+00  6.63813000e+00  6.18886000e+00 -7.61544000e-01 -2.50988000e-01  1.08888300e+00
Sr  1.22485800e+01  6.35048000e+00  6.42156000e+00  2.15400000e-03  4.47290000e-02  3.16360000e-01
Sr  4.05374000e+00  1.35507000e+00  1.61204800e+01  2.54518000e-01  2.16961000e-01  5.35733000e-01
Sr  1.19342500e+01  8.60830000e-01  1.58459300e+01  7.03234000e-01  8.47292000e-01  1.52987000e-01
Sr  4.40876000e+00  6.00524000e+00  1.55642600e+01 -1.17951800e+00  6.48120000e-01  1.58517800e+00
Sr  1.17795900e+01  6.46033000e+00  1.60728700e+01  7.35234000e-01  4.24273000e-01 -1.52599000e-01
Si  5.82816000e+00  1.67045000e+00  3.60726000e+00  3.07889600e+00 -3.15288400e+00  1.06389900e+00
Si  1.36692100e+01  1.22391000e+00  3.71525000e+00  5.58414000e-01 -4.17698000e-01 -4.71700000e-01
Si  6.03165000e+00  6.49141000e+00  3.84269000e+00  1.20210700e+00 -4.08546000e-01 -5.92131000e-01
Si  1.40241200e+01  6.20048000e+00  4.12680000e+00  2.75980000e-01  1.28633000e-01 -6.80065000e-01
Si  6.12453000e+00  1.43916000e+00  1.31479400e+01 -1.39808000e-01 -2.83874000e-01 -1.24231000e-01
Si  1.41449600e+01  1.26022000e+00  1.32067200e+01 -2.08922000e-01 -7.78730000e-02  1.91588000e-01
Si  5.90449000e+00  6.70617000e+00  1.32088100e+01  4.98522000e-01 -1.79198000e-01 -2.53708000e-01
Si  1.40842100e+01  6.51202000e+00  1.32760300e+01 -2.87615000e-01 -2.31437000e-01  2.07449000e-01
Si  2.01104000e+00  3.65031000e+00  5.67327000e+00 -5.10569000e-01 -8.54770000e-02 -2.62346000e-01
Si  1.00420100e+01  3.67737000e+00  6.05178000e+00 -5.77022000e-01  8.48750000e-01 -1.94831700e+00
Si  2.28979000e+00  8.89027000e+00  5.68812000e+00 -9.80901000e-01 -2.83470000e-02 -5.02733000e-01
Si  1.02161600e+01  9.01993000e+00  5.44045000e+00 -1.76907000e-01 -3.89155000e-01 -6.52876000e-01
Si  1.77325000e+00  3.60534000e+00  1.54558500e+01  2.65659000e-01  3.52680000e-01 -8.46228000e-01
Si  1.00342600e+01  3.82401000e+00  1.54906800e+01 -2.94494000e-01  4.64480000e-02 -7.73765000e-01
Si  2.51684000e+00  8.84127000e+00  1.53553200e+01 -2.15575000e-01 -1.87758000e-01 -2.97342000e-01
Si  9.89062000e+00  8.91161000e+00  1.53591700e+01 -4.66083000e-01 -2.02517000e-01 -4.80828000e-01
Si  5.68755000e+00  4.18569000e+00  8.23088000e+00  3.60191000e-01 -2.00166000e-01  2.28672500e+00
Si  1.39801000e+01  3.63738000e+00  8.31211000e+00 -4.68806000e-01  4.93968000e-01  2.61206000e-01
Si  5.12100000e+00  8.83235000e+00  8.30637000e+00  2.12409400e+00 -4.36313000e-01  8.62114000e-01
Si  1.44207200e+01  8.65204000e+00  8.21111000e+00 -5.36398000e-01  2.50254000e-01  2.52036000e-01
Si  6.50943000e+00  3.80075000e+00  1.78925100e+01 -3.83143000e-01  4.35760000e-02 -5.41003000e-01
Si  1.40180300e+01  3.92260000e+00  1.81902200e+01  3.54479000e-01 -2.81336000e-01  4.83821000e-01
Si  5.99712000e+00  8.69893000e+00  1.83336200e+01  3.29709000e-01  1.31401000e-01 -2.61890000e-01
Si  1.37104500e+01  8.80346000e+00  1.80915800e+01 -4.89338000e-01  6.71979000e-01  3.77091000e-01
Si  2.63078000e+00  1.21608000e+00  8.68010000e-01 -9.36931000e-01  1.86040000e-01  5.25759000e-01
Si  9.86914000e+00  1.50014000e+00  1.01393000e+00 -1.46716000e-01 -2.60861000e-01 -3.60984000e-01
Si  1.71612000e+00  6.33986000e+00  1.08992000e+00  1.70447000e-01 -3.87721000e-01 -5.23790000e-01
Si  1.00261000e+01  6.30655000e+00  1.04074000e+00  1.35462000e-01  2.03900000e-01  9.10640000e-02
Si  2.28843000e+00  1.37003000e+00  1.02895800e+01 -8.10054000e-01  3.14840000e-02  5.63073000e-01
Si  1.01845100e+01  1.03831000e+00  1.03142400e+01 -1.72709000e-01  3.60878000e-01  9.37950000e-02
Si  1.97181000e+00  6.19516000e+00  1.05797900e+01 -1.30875000e-01  2.49219000e-01  2.07541000e-01
Si  1.00382900e+01  6.43803000e+00  1.02965300e+01 -2.42747000e-01  6.00800000e-03  4.92785000e-01
95
energy=-316.87565829 config_type=FromPyNEP pbc="T T T" virial="20.293355110976393 -2.0371575004024876 -0.04391366442797411 -2.0371575004024876 21.327551881208347 1.2257497464949882 -0.04391366442797411 1.2257497464949882 17.656616683702335" Lattice="15.990441876729554 0.0 -4.742342883476284e-18 0.0 10.206914594 0.0 0.03155033331455435 0.0 19.023059198324862" Properties=species:S:1:pos:R:3:force:R:3
Sr  1.17089193e+00  1.32468000e+00  3.97275831e+00  2.00273853e-01 -7.27979000e-01 -2.95071538e-01